2
Lattice="15.562 0.0 0.0 0.0 15.562999999999999 0.0 0.0 0.0 15.564" Properties=species:S:1:pos:R:3:initial_magmoms:R:1:magmoms:R:1 energy=-0.23607773829833478 free_energy=-0.23607773829833478 dipole="-0.0008663671284904556 0.005625720881675098 0.004713154323759408" magmom=-3.383048371242272e-15 pbc="T T T"
Mg       3.89050000       7.78100000       7.78100000       2.00000000      -0.00000391
Mg      11.67150000       7.78100000       7.78100000      -2.00000000       0.00000394
2
Lattice="15.562 0.0 0.0 0.0 15.562999999999999 0.0 0.0 0.0 15.564" Properties=species:S:1:pos:R:3:initial_magmoms:R:1:magmoms:R:1 energy=-0.2361635561769566 free_energy=-0.2361635561769566 dipole="4.166314783156733e-08 1.3147325756581941e-06 0.00010462807712492037" magmom=-7.232801577136727e-15 pbc="T T T"
Mg       3.99548276       7.78100000       7.78100000      -2.00000000      -0.00000029
Mg      11.56651724       7.78100000       7.78100000       2.00000000       0.00000029
2
Lattice="15.562 0.0 0.0 0.0 15.562999999999999 0.0 0.0 0.0 15.564" Properties=species:S:1:pos:R:3:initial_magmoms:R:1:magmoms:R:1 energy=-0.23638343568667458 free_energy=-0.23638343568667458 dipole="5.994061559535258e-08 2.9847530385328577e-06 3.201547219484154e-05" magmom=9.362002680121302e-14 pbc="T T T"
Mg       4.10046552       7.78100000       7.78100000      -2.00000000      -0.00000056
Mg      11.46153448       7.78100000       7.78100000       2.00000000       0.00000056
2
Lattice="15.562 0.0 0.0 0.0 15.562999999999999 0.0 0.0 0.0 15.564" Properties=species:S:1:pos:R:3:initial_magmoms:R:1:magmoms:R:1 energy=-0.23676092479276822 free_energy=-0.23676092479276822 dipole="-6.605824149770908e-07 -2.903899710505136e-06 -2.3628098424942243e-05" magmom=3.9130486647129224e-13 pbc="T T T"
Mg       4.20544828       7.78100000       7.78100000      -2.00000000      -0.00000072
Mg      11.35655172       7.78100000       7.78100000       2.00000000       0.00000074
2
Lattice="15.562 0.0 0.0 0.0 15.562999999999999 0.0 0.0 0.0 15.564" Properties=species:S:1:pos:R:3:initial_magmoms:R:1:magmoms:R:1 energy=-0.2373175929965371 free_energy=-0.2373175929965371 dipole="2.3147035249859067e-06 -1.725753672446766e-07 6.468482941674519e-07" magmom=-9.930560185261779e-12 pbc="T T T"
Mg       4.31043103       7.78100000       7.78100000      -2.00000000      -0.00000118
Mg      11.25156897       7.78100000       7.78100000       2.00000000       0.00000124
2
Lattice="15.562 0.0 0.0 0.0 15.562999999999999 0.0 0.0 0.0 15.564" Properties=species:S:1:pos:R:3:initial_magmoms:R:1:magmoms:R:1 energy=-0.23808565497613038 free_energy=-0.23808565497613038 dipole="9.389956331350595e-07 2.395179430657185e-07 4.115907298995057e-07" magmom=-2.882232132864536e-10 pbc="T T T"
Mg       4.41541379       7.78100000       7.78100000      -2.00000000      -0.00000043
Mg      11.14658621       7.78100000       7.78100000       2.00000000       0.00000044
2
Lattice="15.562 0.0 0.0 0.0 15.562999999999999 0.0 0.0 0.0 15.564" Properties=species:S:1:pos:R:3:initial_magmoms:R:1:magmoms:R:1 energy=-0.23911376540392726 free_energy=-0.23911376540392726 dipole="3.103603705470817e-05 1.4874452521265978e-08 1.5647314747441154e-07" magmom=-1.6613975213138008e-13 pbc="T T T"
Mg       4.52039655       7.78100000       7.78100000      -2.00000000       0.00000005
Mg      11.04160345       7.78100000       7.78100000       2.00000000      -0.00000003
