2
Lattice="8.866 0.0 0.0 0.0 8.866999999999999 0.0 0.0 0.0 8.868" Properties=species:S:1:pos:R:3:initial_magmoms:R:1:magmoms:R:1 energy=0.01274992257468974 free_energy=0.01274992257468974 dipole="5.240188768879367e-15 3.875996435527673e-09 7.997018196032299e-09" magmom=2.635469273009753e-17 pbc="T T T"
He       2.21650000       4.43300000       4.43300000       0.00000000      -0.00000000
He       6.64950000       4.43300000       4.43300000       0.00000000      -0.00000000
2
Lattice="8.866 0.0 0.0 0.0 8.866999999999999 0.0 0.0 0.0 8.868" Properties=species:S:1:pos:R:3:initial_magmoms:R:1:magmoms:R:1 energy=0.01271696189968129 free_energy=0.01271696189968129 dipole="-3.335631657248062e-15 1.920008316595865e-09 3.8693927165211916e-09" magmom=8.336332156193933e-16 pbc="T T T"
He       2.32615789       4.43300000       4.43300000       0.00000000       0.00000000
He       6.53984211       4.43300000       4.43300000       0.00000000       0.00000000
2
Lattice="8.866 0.0 0.0 0.0 8.866999999999999 0.0 0.0 0.0 8.868" Properties=species:S:1:pos:R:3:initial_magmoms:R:1:magmoms:R:1 energy=0.012606335564330896 free_energy=0.012606335564330896 dipole="-3.585805921747942e-15 1.9300853174768247e-09 3.862278666674642e-09" magmom=-1.5797102015640415e-15 pbc="T T T"
He       2.43581579       4.43300000       4.43300000       0.00000000      -0.00000000
He       6.43018421       4.43300000       4.43300000       0.00000000      -0.00000000
2
Lattice="8.866 0.0 0.0 0.0 8.866999999999999 0.0 0.0 0.0 8.868" Properties=species:S:1:pos:R:3:initial_magmoms:R:1:magmoms:R:1 energy=0.012390408651330365 free_energy=0.012390408651330365 dipole="-3.241682183062136e-15 1.935985209120225e-09 3.880411350028063e-09" magmom=9.528983553397173e-16 pbc="T T T"
He       2.54547368       4.43300000       4.43300000       0.00000000       0.00000000
He       6.32052632       4.43300000       4.43300000       0.00000000       0.00000000
2
Lattice="8.866 0.0 0.0 0.0 8.866999999999999 0.0 0.0 0.0 8.868" Properties=species:S:1:pos:R:3:initial_magmoms:R:1:magmoms:R:1 energy=0.01202740965507249 free_energy=0.01202740965507249 dipole="-1.962548914380344e-15 1.931035767130976e-09 3.8785677290048515e-09" magmom=4.743068999560072e-16 pbc="T T T"
He       2.65513158       4.43300000       4.43300000       0.00000000       0.00000000
He       6.21086842       4.43300000       4.43300000       0.00000000       0.00000000
2
Lattice="8.866 0.0 0.0 0.0 8.866999999999999 0.0 0.0 0.0 8.868" Properties=species:S:1:pos:R:3:initial_magmoms:R:1:magmoms:R:1 energy=0.011470180990515444 free_energy=0.011470180990515444 dipole="-4.3929438171537836e-15 1.9251011323440828e-09 3.861079722178401e-09" magmom=9.71743500364754e-16 pbc="T T T"
He       2.76478947       4.43300000       4.43300000       0.00000000       0.00000000
He       6.10121053       4.43300000       4.43300000       0.00000000       0.00000000
2
Lattice="8.866 0.0 0.0 0.0 8.866999999999999 0.0 0.0 0.0 8.868" Properties=species:S:1:pos:R:3:initial_magmoms:R:1:magmoms:R:1 energy=0.010714046810491448 free_energy=0.010714046810491448 dipole="-5.5936990647151766e-15 1.8993735509178397e-09 3.8259099335307646e-09" magmom=-2.180469718893218e-15 pbc="T T T"
He       2.87444737       4.43300000       4.43300000       0.00000000      -0.00000000
He       5.99155263       4.43300000       4.43300000       0.00000000      -0.00000000
2
Lattice="8.866 0.0 0.0 0.0 8.866999999999999 0.0 0.0 0.0 8.868" Properties=species:S:1:pos:R:3:initial_magmoms:R:1:magmoms:R:1 energy=0.009944554808515391 free_energy=0.009944554808515391 dipole="-9.112411999446707e-15 1.906476369373381e-09 3.850215472056956e-09" magmom=2.417441151996176e-15 pbc="T T T"
He       2.98410526       4.43300000       4.43300000       0.00000000       0.00000000
He       5.88189474       4.43300000       4.43300000       0.00000000       0.00000000
2
Lattice="8.866 0.0 0.0 0.0 8.866999999999999 0.0 0.0 0.0 8.868" Properties=species:S:1:pos:R:3:initial_magmoms:R:1:magmoms:R:1 energy=0.009859121085996871 free_energy=0.009859121085996871 dipole="-5.9774857093746865e-15 1.7798281062453483e-09 3.710390017976987e-09" magmom=1.7676440223713207e-15 pbc="T T T"
He       3.09376316       4.43300000       4.43300000       0.00000000       0.00000000
He       5.77223684       4.43300000       4.43300000       0.00000000       0.00000000
2
Lattice="8.866 0.0 0.0 0.0 8.866999999999999 0.0 0.0 0.0 8.868" Properties=species:S:1:pos:R:3:initial_magmoms:R:1:magmoms:R:1 energy=0.012412064561270713 free_energy=0.012412064561270713 dipole="-7.856632990885209e-16 1.9601351279751854e-09 3.9505536189476705e-09" magmom=-1.434845940194909e-16 pbc="T T T"
He       3.20342105       4.43300000       4.43300000       0.00000000      -0.00000000
He       5.66257895       4.43300000       4.43300000       0.00000000      -0.00000000
2
Lattice="8.866 0.0 0.0 0.0 8.866999999999999 0.0 0.0 0.0 8.868" Properties=species:S:1:pos:R:3:initial_magmoms:R:1:magmoms:R:1 energy=0.022976647932543507 free_energy=0.022976647932543507 dipole="-2.0535057830715235e-15 1.8968145702249643e-09 4.015624428796403e-09" magmom=2.2911067219759034e-15 pbc="T T T"
He       3.31307895       4.43300000       4.43300000       0.00000000       0.00000000
He       5.55292105       4.43300000       4.43300000       0.00000000       0.00000000
2
Lattice="8.866 0.0 0.0 0.0 8.866999999999999 0.0 0.0 0.0 8.868" Properties=species:S:1:pos:R:3:initial_magmoms:R:1:magmoms:R:1 energy=0.05476897442780054 free_energy=0.05476897442780054 dipole="2.8972902044130474e-15 2.054319101904409e-09 4.1072677376361075e-09" magmom=2.4175871935216072e-15 pbc="T T T"
He       3.42273684       4.43300000       4.43300000       0.00000000       0.00000000
He       5.44326316       4.43300000       4.43300000       0.00000000       0.00000000
2
Lattice="8.866 0.0 0.0 0.0 8.866999999999999 0.0 0.0 0.0 8.868" Properties=species:S:1:pos:R:3:initial_magmoms:R:1:magmoms:R:1 energy=0.14077124758620257 free_energy=0.14077124758620257 dipole="3.7276078461895725e-15 2.1330420793407868e-09 4.212318729075064e-09" magmom=-2.2137086299873609e-16 pbc="T T T"
He       3.53239474       4.43300000       4.43300000       0.00000000      -0.00000000
He       5.33360526       4.43300000       4.43300000       0.00000000      -0.00000000
2
Lattice="8.866 0.0 0.0 0.0 8.866999999999999 0.0 0.0 0.0 8.868" Properties=species:S:1:pos:R:3:initial_magmoms:R:1:magmoms:R:1 energy=0.3613815086549065 free_energy=0.3613815086549065 dipole="8.828837171624155e-16 2.198889552314467e-09 4.443900278631663e-09" magmom=-1.7001738159329543e-15 pbc="T T T"
He       3.64205263       4.43300000       4.43300000       0.00000000      -0.00000000
He       5.22394737       4.43300000       4.43300000       0.00000000      -0.00000000
2
Lattice="8.866 0.0 0.0 0.0 8.866999999999999 0.0 0.0 0.0 8.868" Properties=species:S:1:pos:R:3:initial_magmoms:R:1:magmoms:R:1 energy=0.9096801076266958 free_energy=0.9096801076266958 dipole="-1.113557072949882e-15 2.337390417247317e-09 4.6907042070901865e-09" magmom=-1.9916554373575595e-15 pbc="T T T"
He       3.75171053       4.43300000       4.43300000       0.00000000      -0.00000000
He       5.11428947       4.43300000       4.43300000       0.00000000      -0.00000000
2
Lattice="8.866 0.0 0.0 0.0 8.866999999999999 0.0 0.0 0.0 8.868" Properties=species:S:1:pos:R:3:initial_magmoms:R:1:magmoms:R:1 energy=2.2452135132932445 free_energy=2.2452135132932445 dipole="-6.92279754011671e-17 2.0764198790960943e-09 4.13554822439579e-09" magmom=-1.6959022010651872e-15 pbc="T T T"
He       3.86136842       4.43300000       4.43300000       0.00000000      -0.00000000
He       5.00463158       4.43300000       4.43300000       0.00000000      -0.00000000
2
Lattice="8.866 0.0 0.0 0.0 8.866999999999999 0.0 0.0 0.0 8.868" Properties=species:S:1:pos:R:3:initial_magmoms:R:1:magmoms:R:1 energy=5.41482698850248 free_energy=5.41482698850248 dipole="1.3559535180612963e-15 2.3122314687079924e-10 4.754150824459583e-10" magmom=-1.7966373869978929e-16 pbc="T T T"
He       3.97102632       4.43300000       4.43300000       0.00000000       0.00000000
He       4.89497368       4.43300000       4.43300000       0.00000000       0.00000000
2
Lattice="8.866 0.0 0.0 0.0 8.866999999999999 0.0 0.0 0.0 8.868" Properties=species:S:1:pos:R:3:initial_magmoms:R:1:magmoms:R:1 energy=12.760067261899298 free_energy=12.760067261899298 dipole="-1.6630753682328984e-15 -1.5839024210500815e-08 -3.165206490361644e-08" magmom=6.243225607477336e-17 pbc="T T T"
He       4.08068421       4.43300000       4.43300000       0.00000000       0.00000000
He       4.78531579       4.43300000       4.43300000       0.00000000       0.00000000
2
Lattice="8.866 0.0 0.0 0.0 8.866999999999999 0.0 0.0 0.0 8.868" Properties=species:S:1:pos:R:3:initial_magmoms:R:1:magmoms:R:1 energy=28.697495957748416 free_energy=28.697495957748416 dipole="6.521917355086148e-16 -2.904000518819959e-07 -5.803798634759435e-07" magmom=-3.47091077396106e-15 pbc="T T T"
He       4.19034211       4.43300000       4.43300000       0.00000000      -0.00000000
He       4.67565789       4.43300000       4.43300000       0.00000000      -0.00000000
2
Lattice="8.866 0.0 0.0 0.0 8.866999999999999 0.0 0.0 0.0 8.868" Properties=species:S:1:pos:R:3:initial_magmoms:R:1:magmoms:R:1 energy=53.82253011385226 free_energy=53.82253011385226 dipole="-1.4741158191334072e-15 -1.2837911128712374e-06 -2.5768134094255065e-06" magmom=-6.274817647651197e-15 pbc="T T T"
He       4.30000000       4.43300000       4.43300000       0.00000000      -0.00000000
He       4.56600000       4.43300000       4.43300000       0.00000000      -0.00000000
