phonopy:
  version: "2.30.1"
  frequency_unit_conversion_factor: 15.633302
  symmetry_tolerance: 1.00000e-05

space_group:
  type: "Pm-3m"
  number: 221
  Hall_symbol: "-P 4 2 3"

supercell_matrix:
- [   2,   0,   0 ]
- [   0,   2,   0 ]
- [   0,   0,   2 ]

primitive_cell:
  lattice:
  - [     4.000000000000000,     0.000000000000000,     0.000000000000000 ] # a
  - [     0.000000000000000,     4.000000000000000,     0.000000000000000 ] # b
  - [     0.000000000000000,     0.000000000000000,     4.000000000000000 ] # c
  points:
  - symbol: Ba # 1
    coordinates: [  0.000000000000000,  0.000000000000000,  0.000000000000000 ]
    mass: 137.327000
  - symbol: Zr # 2
    coordinates: [  0.500000000000000,  0.500000000000000,  0.500000000000000 ]
    mass: 91.224000
  - symbol: O # 3
    coordinates: [  0.500000000000000,  0.500000000000000,  0.000000000000000 ]
    mass: 15.999000
  - symbol: O # 4
    coordinates: [  0.500000000000000,  0.000000000000000,  0.500000000000000 ]
    mass: 15.999000
  - symbol: O # 5
    coordinates: [  0.000000000000000,  0.500000000000000,  0.500000000000000 ]
    mass: 15.999000
  reciprocal_lattice: # without 2pi
  - [     0.250000000000000,     0.000000000000000,     0.000000000000000 ] # a*
  - [     0.000000000000000,     0.250000000000000,     0.000000000000000 ] # b*
  - [     0.000000000000000,     0.000000000000000,     0.250000000000000 ] # c*

unit_cell:
  lattice:
  - [     4.000000000000000,     0.000000000000000,     0.000000000000000 ] # a
  - [     0.000000000000000,     4.000000000000000,     0.000000000000000 ] # b
  - [     0.000000000000000,     0.000000000000000,     4.000000000000000 ] # c
  points:
  - symbol: Ba # 1
    coordinates: [  0.000000000000000,  0.000000000000000,  0.000000000000000 ]
    mass: 137.327000
    reduced_to: 1
  - symbol: Zr # 2
    coordinates: [  0.500000000000000,  0.500000000000000,  0.500000000000000 ]
    mass: 91.224000
    reduced_to: 2
  - symbol: O # 3
    coordinates: [  0.500000000000000,  0.500000000000000,  0.000000000000000 ]
    mass: 15.999000
    reduced_to: 3
  - symbol: O # 4
    coordinates: [  0.500000000000000,  0.000000000000000,  0.500000000000000 ]
    mass: 15.999000
    reduced_to: 4
  - symbol: O # 5
    coordinates: [  0.000000000000000,  0.500000000000000,  0.500000000000000 ]
    mass: 15.999000
    reduced_to: 5

supercell:
  lattice:
  - [     8.000000000000000,     0.000000000000000,     0.000000000000000 ] # a
  - [     0.000000000000000,     8.000000000000000,     0.000000000000000 ] # b
  - [     0.000000000000000,     0.000000000000000,     8.000000000000000 ] # c
  points:
  - symbol: Ba # 1
    coordinates: [  0.000000000000000,  0.000000000000000,  0.000000000000000 ]
    mass: 137.327000
    reduced_to: 1
  - symbol: Ba # 2
    coordinates: [  0.500000000000000,  0.000000000000000,  0.000000000000000 ]
    mass: 137.327000
    reduced_to: 1
  - symbol: Ba # 3
    coordinates: [  0.000000000000000,  0.500000000000000,  0.000000000000000 ]
    mass: 137.327000
    reduced_to: 1
  - symbol: Ba # 4
    coordinates: [  0.500000000000000,  0.500000000000000,  0.000000000000000 ]
    mass: 137.327000
    reduced_to: 1
  - symbol: Ba # 5
    coordinates: [  0.000000000000000,  0.000000000000000,  0.500000000000000 ]
    mass: 137.327000
    reduced_to: 1
  - symbol: Ba # 6
    coordinates: [  0.500000000000000,  0.000000000000000,  0.500000000000000 ]
    mass: 137.327000
    reduced_to: 1
  - symbol: Ba # 7
    coordinates: [  0.000000000000000,  0.500000000000000,  0.500000000000000 ]
    mass: 137.327000
    reduced_to: 1
  - symbol: Ba # 8
    coordinates: [  0.500000000000000,  0.500000000000000,  0.500000000000000 ]
    mass: 137.327000
    reduced_to: 1
  - symbol: Zr # 9
    coordinates: [  0.250000000000000,  0.250000000000000,  0.250000000000000 ]
    mass: 91.224000
    reduced_to: 9
  - symbol: Zr # 10
    coordinates: [  0.750000000000000,  0.250000000000000,  0.250000000000000 ]
    mass: 91.224000
    reduced_to: 9
  - symbol: Zr # 11
    coordinates: [  0.250000000000000,  0.750000000000000,  0.250000000000000 ]
    mass: 91.224000
    reduced_to: 9
  - symbol: Zr # 12
    coordinates: [  0.750000000000000,  0.750000000000000,  0.250000000000000 ]
    mass: 91.224000
    reduced_to: 9
  - symbol: Zr # 13
    coordinates: [  0.250000000000000,  0.250000000000000,  0.750000000000000 ]
    mass: 91.224000
    reduced_to: 9
  - symbol: Zr # 14
    coordinates: [  0.750000000000000,  0.250000000000000,  0.750000000000000 ]
    mass: 91.224000
    reduced_to: 9
  - symbol: Zr # 15
    coordinates: [  0.250000000000000,  0.750000000000000,  0.750000000000000 ]
    mass: 91.224000
    reduced_to: 9
  - symbol: Zr # 16
    coordinates: [  0.750000000000000,  0.750000000000000,  0.750000000000000 ]
    mass: 91.224000
    reduced_to: 9
  - symbol: O # 17
    coordinates: [  0.250000000000000,  0.250000000000000,  0.000000000000000 ]
    mass: 15.999000
    reduced_to: 17
  - symbol: O # 18
    coordinates: [  0.750000000000000,  0.250000000000000,  0.000000000000000 ]
    mass: 15.999000
    reduced_to: 17
  - symbol: O # 19
    coordinates: [  0.250000000000000,  0.750000000000000,  0.000000000000000 ]
    mass: 15.999000
    reduced_to: 17
  - symbol: O # 20
    coordinates: [  0.750000000000000,  0.750000000000000,  0.000000000000000 ]
    mass: 15.999000
    reduced_to: 17
  - symbol: O # 21
    coordinates: [  0.250000000000000,  0.250000000000000,  0.500000000000000 ]
    mass: 15.999000
    reduced_to: 17
  - symbol: O # 22
    coordinates: [  0.750000000000000,  0.250000000000000,  0.500000000000000 ]
    mass: 15.999000
    reduced_to: 17
  - symbol: O # 23
    coordinates: [  0.250000000000000,  0.750000000000000,  0.500000000000000 ]
    mass: 15.999000
    reduced_to: 17
  - symbol: O # 24
    coordinates: [  0.750000000000000,  0.750000000000000,  0.500000000000000 ]
    mass: 15.999000
    reduced_to: 17
  - symbol: O # 25
    coordinates: [  0.250000000000000,  0.000000000000000,  0.250000000000000 ]
    mass: 15.999000
    reduced_to: 25
  - symbol: O # 26
    coordinates: [  0.750000000000000,  0.000000000000000,  0.250000000000000 ]
    mass: 15.999000
    reduced_to: 25
  - symbol: O # 27
    coordinates: [  0.250000000000000,  0.500000000000000,  0.250000000000000 ]
    mass: 15.999000
    reduced_to: 25
  - symbol: O # 28
    coordinates: [  0.750000000000000,  0.500000000000000,  0.250000000000000 ]
    mass: 15.999000
    reduced_to: 25
  - symbol: O # 29
    coordinates: [  0.250000000000000,  0.000000000000000,  0.750000000000000 ]
    mass: 15.999000
    reduced_to: 25
  - symbol: O # 30
    coordinates: [  0.750000000000000,  0.000000000000000,  0.750000000000000 ]
    mass: 15.999000
    reduced_to: 25
  - symbol: O # 31
    coordinates: [  0.250000000000000,  0.500000000000000,  0.750000000000000 ]
    mass: 15.999000
    reduced_to: 25
  - symbol: O # 32
    coordinates: [  0.750000000000000,  0.500000000000000,  0.750000000000000 ]
    mass: 15.999000
    reduced_to: 25
  - symbol: O # 33
    coordinates: [  0.000000000000000,  0.250000000000000,  0.250000000000000 ]
    mass: 15.999000
    reduced_to: 33
  - symbol: O # 34
    coordinates: [  0.500000000000000,  0.250000000000000,  0.250000000000000 ]
    mass: 15.999000
    reduced_to: 33
  - symbol: O # 35
    coordinates: [  0.000000000000000,  0.750000000000000,  0.250000000000000 ]
    mass: 15.999000
    reduced_to: 33
  - symbol: O # 36
    coordinates: [  0.500000000000000,  0.750000000000000,  0.250000000000000 ]
    mass: 15.999000
    reduced_to: 33
  - symbol: O # 37
    coordinates: [  0.000000000000000,  0.250000000000000,  0.750000000000000 ]
    mass: 15.999000
    reduced_to: 33
  - symbol: O # 38
    coordinates: [  0.500000000000000,  0.250000000000000,  0.750000000000000 ]
    mass: 15.999000
    reduced_to: 33
  - symbol: O # 39
    coordinates: [  0.000000000000000,  0.750000000000000,  0.750000000000000 ]
    mass: 15.999000
    reduced_to: 33
  - symbol: O # 40
    coordinates: [  0.500000000000000,  0.750000000000000,  0.750000000000000 ]
    mass: 15.999000
    reduced_to: 33

displacements:
- atom:    1
  displacement:
    [   0.0100000000000000,  0.0000000000000000,  0.0000000000000000 ]
  forces:
  - [  -0.0972005600000000, -0.0000010800000000, -0.0000002900000000 ]
  - [   0.0247509700000000,  0.0000003400000000, -0.0000002100000000 ]
  - [  -0.0070425500000000,  0.0000005900000000,  0.0000012600000000 ]
  - [   0.0059725000000000, -0.0000007600000000, -0.0000000900000000 ]
  - [  -0.0070445200000000, -0.0000002000000000, -0.0000002500000000 ]
  - [   0.0059748300000000,  0.0000001800000000,  0.0000004500000000 ]
  - [  -0.0026573800000000,  0.0000002200000000, -0.0000004500000000 ]
  - [   0.0024506600000000, -0.0000002200000000, -0.0000001000000000 ]
  - [   0.0060658100000000,  0.0149362800000000,  0.0149396700000000 ]
  - [   0.0061185400000000, -0.0148240100000000, -0.0148247400000000 ]
  - [   0.0060668300000000, -0.0149363000000000,  0.0149394100000000 ]
  - [   0.0061170000000000,  0.0148227700000000, -0.0148249000000000 ]
  - [   0.0060647300000000,  0.0149412400000000, -0.0149389200000000 ]
  - [   0.0061189000000000, -0.0148268000000000,  0.0148261400000000 ]
  - [   0.0060671700000000, -0.0149393400000000, -0.0149386000000000 ]
  - [   0.0061177600000000,  0.0148261200000000,  0.0148242600000000 ]
  - [   0.0018495000000000, -0.0009791700000000,  0.0000001400000000 ]
  - [   0.0016089400000000,  0.0011737800000000, -0.0000003500000000 ]
  - [   0.0018488800000000,  0.0009792100000000,  0.0000003700000000 ]
  - [   0.0016094100000000, -0.0011737700000000, -0.0000004200000000 ]
  - [   0.0001295200000000, -0.0013306000000000, -0.0000001300000000 ]
  - [   0.0001132500000000,  0.0013263600000000, -0.0000007300000000 ]
  - [   0.0001283100000000,  0.0013307100000000,  0.0000002600000000 ]
  - [   0.0001143300000000, -0.0013261900000000, -0.0000004000000000 ]
  - [   0.0018488100000000,  0.0000003300000000, -0.0009803800000000 ]
  - [   0.0016094300000000, -0.0000001200000000,  0.0011735200000000 ]
  - [   0.0001282700000000,  0.0000000200000000, -0.0013317200000000 ]
  - [   0.0001145300000000, -0.0000000700000000,  0.0013259300000000 ]
  - [   0.0018497300000000,  0.0000000900000000,  0.0009801300000000 ]
  - [   0.0016086000000000, -0.0000000100000000, -0.0011737400000000 ]
  - [   0.0001295100000000, -0.0000000800000000,  0.0013319100000000 ]
  - [   0.0001130700000000,  0.0000004100000000, -0.0013262900000000 ]
  - [   0.0093273800000000,  0.0000090300000000,  0.0000081100000000 ]
  - [  -0.0065131900000000, -0.0000071700000000, -0.0000084000000000 ]
  - [   0.0093276400000000, -0.0000089200000000,  0.0000079400000000 ]
  - [  -0.0065126600000000,  0.0000071000000000, -0.0000082100000000 ]
  - [   0.0093270500000000,  0.0000086000000000, -0.0000081500000000 ]
  - [  -0.0065137700000000, -0.0000081100000000,  0.0000080400000000 ]
  - [   0.0093266900000000, -0.0000085200000000, -0.0000079900000000 ]
  - [  -0.0065139100000000,  0.0000080400000000,  0.0000079400000000 ]
- atom:    9
  displacement:
    [   0.0100000000000000,  0.0000000000000000,  0.0000000000000000 ]
  forces:
  - [   0.0061093800000000,  0.0148253700000000,  0.0148264200000000 ]
  - [   0.0060546900000000, -0.0149341800000000, -0.0149343100000000 ]
  - [   0.0061116900000000, -0.0148256500000000,  0.0148279300000000 ]
  - [   0.0060531800000000,  0.0149338900000000, -0.0149344400000000 ]
  - [   0.0061096200000000,  0.0148262600000000, -0.0148271600000000 ]
  - [   0.0060553200000000, -0.0149340400000000,  0.0149350500000000 ]
  - [   0.0061114800000000, -0.0148263900000000, -0.0148272200000000 ]
  - [   0.0060540600000000,  0.0149341500000000,  0.0149346500000000 ]
  - [  -0.3057539300000000,  0.0000016300000000, -0.0000014900000000 ]
  - [   0.1328682200000000,  0.0000013400000000,  0.0000010500000000 ]
  - [  -0.0052426900000000, -0.0000009400000000, -0.0000005800000000 ]
  - [   0.0056243500000000, -0.0000023300000000, -0.0000011000000000 ]
  - [  -0.0052408800000000,  0.0000040300000000,  0.0000009800000000 ]
  - [   0.0056214700000000, -0.0000018500000000,  0.0000013400000000 ]
  - [  -0.0069399100000000, -0.0000026200000000,  0.0000001800000000 ]
  - [   0.0068537700000000,  0.0000007500000000, -0.0000000500000000 ]
  - [   0.0026088700000000,  0.0000007000000000,  0.0004867400000000 ]
  - [  -0.0146093800000000, -0.0000004900000000,  0.0000221400000000 ]
  - [   0.0033810700000000, -0.0000006900000000, -0.0000239200000000 ]
  - [  -0.0032928200000000,  0.0000004600000000, -0.0000037800000000 ]
  - [   0.0026095700000000,  0.0000010500000000, -0.0004867600000000 ]
  - [  -0.0146101000000000, -0.0000004200000000, -0.0000230600000000 ]
  - [   0.0033810300000000, -0.0000009300000000,  0.0000245000000000 ]
  - [  -0.0032927400000000,  0.0000006400000000,  0.0000033400000000 ]
  - [   0.0026081200000000,  0.0004870100000000, -0.0000004300000000 ]
  - [  -0.0146087900000000,  0.0000224100000000, -0.0000006200000000 ]
  - [   0.0026080100000000, -0.0004868400000000, -0.0000003400000000 ]
  - [  -0.0146086300000000, -0.0000225900000000, -0.0000007300000000 ]
  - [   0.0033818900000000, -0.0000242300000000,  0.0000004300000000 ]
  - [  -0.0032935800000000, -0.0000035200000000,  0.0000005100000000 ]
  - [   0.0033823800000000,  0.0000238700000000,  0.0000004900000000 ]
  - [  -0.0032942100000000,  0.0000040300000000,  0.0000004700000000 ]
  - [   0.0822262800000000,  0.0000005600000000, -0.0000001900000000 ]
  - [   0.0901504300000000,  0.0000005700000000, -0.0000003700000000 ]
  - [  -0.0003065700000000, -0.0000003300000000, -0.0000007800000000 ]
  - [  -0.0002027000000000, -0.0000006700000000, -0.0000006200000000 ]
  - [  -0.0003074500000000,  0.0000001800000000,  0.0000000800000000 ]
  - [  -0.0002040200000000, -0.0000003600000000,  0.0000002700000000 ]
  - [  -0.0000878800000000, -0.0000001200000000,  0.0000007800000000 ]
  - [  -0.0000686400000000,  0.0000003000000000,  0.0000006000000000 ]
- atom:   17
  displacement:
    [   0.0070710678118655,  0.0000000000000000,  0.0070710678118655 ]
  forces:
  - [   0.0011516800000000, -0.0008303700000000,  0.0065851900000000 ]
  - [   0.0012971300000000,  0.0006949700000000,  0.0066007000000000 ]
  - [   0.0011537400000000,  0.0008299200000000,  0.0065866900000000 ]
  - [   0.0012954800000000, -0.0006955600000000,  0.0066008600000000 ]
  - [   0.0000901000000000, -0.0009236200000000, -0.0046025700000000 ]
  - [   0.0000864800000000,  0.0009562300000000, -0.0046123900000000 ]
  - [   0.0000919700000000,  0.0009234000000000, -0.0046025900000000 ]
  - [   0.0000849800000000, -0.0009556400000000, -0.0046128400000000 ]
  - [   0.0014293900000000, -0.0000012800000000,  0.0625994200000000 ]
  - [  -0.0103844900000000,  0.0000014200000000, -0.0001611900000000 ]
  - [   0.0024011900000000,  0.0000014900000000, -0.0001620800000000 ]
  - [  -0.0023183200000000, -0.0000026900000000, -0.0000291900000000 ]
  - [   0.0022514000000000,  0.0000029100000000,  0.0592338700000000 ]
  - [  -0.0102561900000000, -0.0000022400000000, -0.0001887300000000 ]
  - [   0.0023992300000000, -0.0000012600000000, -0.0001891900000000 ]
  - [  -0.0023195200000000,  0.0000021400000000, -0.0000699400000000 ]
  - [  -0.0259695600000000,  0.0000006100000000, -0.2490102200000000 ]
  - [   0.0033813900000000, -0.0000004700000000, -0.0059652900000000 ]
  - [  -0.0021604600000000, -0.0000006200000000, -0.0059644000000000 ]
  - [   0.0048454900000000,  0.0000004900000000, -0.0013470700000000 ]
  - [   0.0046222300000000,  0.0000008500000000,  0.0637673100000000 ]
  - [   0.0028994800000000, -0.0000004500000000,  0.0063603200000000 ]
  - [  -0.0005400600000000, -0.0000008200000000,  0.0063609900000000 ]
  - [   0.0006547600000000,  0.0000006700000000,  0.0013644400000000 ]
  - [  -0.0027570900000000, -0.0155746100000000,  0.0069283100000000 ]
  - [   0.0017561600000000, -0.0016086700000000, -0.0000370000000000 ]
  - [  -0.0027571100000000,  0.0155746000000000,  0.0069286000000000 ]
  - [   0.0017564100000000,  0.0016084400000000, -0.0000370700000000 ]
  - [  -0.0027247200000000,  0.0154791600000000,  0.0069910900000000 ]
  - [   0.0017488300000000,  0.0015829100000000, -0.0000184600000000 ]
  - [  -0.0027244000000000, -0.0154796300000000,  0.0069911000000000 ]
  - [   0.0017480900000000, -0.0015823200000000, -0.0000185600000000 ]
  - [  -0.0085657100000000,  0.0000003500000000, -0.0019536000000000 ]
  - [   0.0226785600000000,  0.0000004600000000,  0.0159412300000000 ]
  - [  -0.0016192500000000, -0.0000002800000000, -0.0008640400000000 ]
  - [   0.0015752500000000, -0.0000005000000000,  0.0007926900000000 ]
  - [   0.0223063000000000,  0.0000001700000000,  0.0157011600000000 ]
  - [  -0.0085594700000000, -0.0000003600000000, -0.0018481300000000 ]
  - [   0.0015692700000000, -0.0000001500000000,  0.0008072000000000 ]
  - [  -0.0016186600000000,  0.0000003300000000, -0.0008466400000000 ]

force_constants:
  format: "full"
  shape: [ 40, 40 ]
  elements:
  - # (1, 1)
    - [     9.720056000000001,     0.000000000000000,    -0.000000000000000 ]
    - [    -0.000000000000000,     9.720056000000001,     0.000000000000000 ]
    - [     0.000000000000000,    -0.000000000000000,     9.720056000000001 ]
  - # (1, 2)
    - [    -2.475097000000000,     0.000000000000000,    -0.000000000000000 ]
    - [     0.000000000000000,     0.704353500000000,    -0.000000000000000 ]
    - [    -0.000000000000000,    -0.000000000000000,     0.704353500000000 ]
  - # (1, 3)
    - [     0.704353500000000,    -0.000000000000000,    -0.000000000000000 ]
    - [     0.000000000000000,    -2.475097000000000,    -0.000000000000000 ]
    - [    -0.000000000000000,     0.000000000000000,     0.704353500000000 ]
  - # (1, 4)
    - [    -0.597366500000000,     0.000000000000000,     0.000000000000000 ]
    - [     0.000000000000000,    -0.597366500000000,    -0.000000000000000 ]
    - [    -0.000000000000000,     0.000000000000000,     0.265738000000000 ]
  - # (1, 5)
    - [     0.704353500000000,    -0.000000000000000,    -0.000000000000000 ]
    - [    -0.000000000000000,     0.704353500000000,    -0.000000000000000 ]
    - [    -0.000000000000000,     0.000000000000000,    -2.475097000000000 ]
  - # (1, 6)
    - [    -0.597366500000000,    -0.000000000000000,    -0.000000000000000 ]
    - [     0.000000000000000,     0.265738000000000,    -0.000000000000000 ]
    - [     0.000000000000000,     0.000000000000000,    -0.597366500000000 ]
  - # (1, 7)
    - [     0.265738000000000,     0.000000000000000,     0.000000000000000 ]
    - [     0.000000000000000,    -0.597366500000000,     0.000000000000000 ]
    - [    -0.000000000000000,     0.000000000000000,    -0.597366500000000 ]
  - # (1, 8)
    - [    -0.245066000000000,    -0.000000000000000,     0.000000000000000 ]
    - [    -0.000000000000000,    -0.245066000000000,     0.000000000000000 ]
    - [     0.000000000000000,    -0.000000000000000,    -0.245066000000000 ]
  - # (1, 9)
    - [    -0.609209250000000,    -1.488184375000000,    -1.488184375000000 ]
    - [    -1.488184375000000,    -0.609209250000000,    -1.488184375000000 ]
    - [    -1.488184375000000,    -1.488184375000000,    -0.609209250000000 ]
  - # (1, 10)
    - [    -0.609209250000000,     1.488184375000000,     1.488184375000000 ]
    - [     1.488184375000000,    -0.609209250000000,    -1.488184375000000 ]
    - [     1.488184375000000,    -1.488184375000000,    -0.609209250000000 ]
  - # (1, 11)
    - [    -0.609209250000000,     1.488184375000000,    -1.488184375000000 ]
    - [     1.488184375000000,    -0.609209250000000,     1.488184375000000 ]
    - [    -1.488184375000000,     1.488184375000000,    -0.609209250000000 ]
  - # (1, 12)
    - [    -0.609209250000000,    -1.488184375000000,     1.488184375000000 ]
    - [    -1.488184375000000,    -0.609209250000000,     1.488184375000000 ]
    - [     1.488184375000000,     1.488184375000000,    -0.609209250000000 ]
  - # (1, 13)
    - [    -0.609209250000000,    -1.488184375000000,     1.488184375000000 ]
    - [    -1.488184375000000,    -0.609209250000000,     1.488184375000000 ]
    - [     1.488184375000000,     1.488184375000000,    -0.609209250000000 ]
  - # (1, 14)
    - [    -0.609209250000000,     1.488184375000000,    -1.488184375000000 ]
    - [     1.488184375000000,    -0.609209250000000,     1.488184375000000 ]
    - [    -1.488184375000000,     1.488184375000000,    -0.609209250000000 ]
  - # (1, 15)
    - [    -0.609209250000000,     1.488184375000000,     1.488184375000000 ]
    - [     1.488184375000000,    -0.609209250000000,    -1.488184375000000 ]
    - [     1.488184375000000,    -1.488184375000000,    -0.609209250000000 ]
  - # (1, 16)
    - [    -0.609209250000000,    -1.488184375000000,    -1.488184375000000 ]
    - [    -1.488184375000000,    -0.609209250000000,    -1.488184375000000 ]
    - [    -1.488184375000000,    -1.488184375000000,    -0.609209250000000 ]
  - # (1, 17)
    - [    -0.172916250000000,     0.107671250000000,     0.000000000000000 ]
    - [     0.107671250000000,    -0.172916250000000,     0.000000000000000 ]
    - [    -0.000000000000000,     0.000000000000000,    -0.932719000000000 ]
  - # (1, 18)
    - [    -0.172916250000000,    -0.107671250000000,    -0.000000000000000 ]
    - [    -0.107671250000000,    -0.172916250000000,    -0.000000000000000 ]
    - [     0.000000000000000,     0.000000000000000,    -0.932719000000000 ]
  - # (1, 19)
    - [    -0.172916250000000,    -0.107671250000000,    -0.000000000000000 ]
    - [    -0.107671250000000,    -0.172916250000000,    -0.000000000000000 ]
    - [     0.000000000000000,    -0.000000000000000,    -0.932719000000000 ]
  - # (1, 20)
    - [    -0.172916250000000,     0.107671250000000,    -0.000000000000000 ]
    - [     0.107671250000000,    -0.172916250000000,    -0.000000000000000 ]
    - [     0.000000000000000,     0.000000000000000,    -0.932719000000000 ]
  - # (1, 21)
    - [    -0.012134875000000,     0.132871375000000,     0.000000000000000 ]
    - [     0.132871375000000,    -0.012134875000000,     0.000000000000000 ]
    - [    -0.000000000000000,    -0.000000000000000,     0.651338250000000 ]
  - # (1, 22)
    - [    -0.012134875000000,    -0.132871375000000,    -0.000000000000000 ]
    - [    -0.132871375000000,    -0.012134875000000,    -0.000000000000000 ]
    - [     0.000000000000000,    -0.000000000000000,     0.651338250000000 ]
  - # (1, 23)
    - [    -0.012134875000000,    -0.132871375000000,    -0.000000000000000 ]
    - [    -0.132871375000000,    -0.012134875000000,    -0.000000000000000 ]
    - [    -0.000000000000000,     0.000000000000000,     0.651338250000000 ]
  - # (1, 24)
    - [    -0.012134875000000,     0.132871375000000,    -0.000000000000000 ]
    - [     0.132871375000000,    -0.012134875000000,     0.000000000000000 ]
    - [     0.000000000000000,     0.000000000000000,     0.651338250000000 ]
  - # (1, 25)
    - [    -0.172916250000000,    -0.000000000000000,     0.107671250000000 ]
    - [     0.000000000000000,    -0.932719000000000,    -0.000000000000000 ]
    - [     0.107671250000000,     0.000000000000000,    -0.172916250000000 ]
  - # (1, 26)
    - [    -0.172916250000000,     0.000000000000000,    -0.107671250000000 ]
    - [    -0.000000000000000,    -0.932719000000000,     0.000000000000000 ]
    - [    -0.107671250000000,    -0.000000000000000,    -0.172916250000000 ]
  - # (1, 27)
    - [    -0.012134875000000,    -0.000000000000000,     0.132871375000000 ]
    - [    -0.000000000000000,     0.651338250000000,    -0.000000000000000 ]
    - [     0.132871375000000,     0.000000000000000,    -0.012134875000000 ]
  - # (1, 28)
    - [    -0.012134875000000,    -0.000000000000000,    -0.132871375000000 ]
    - [     0.000000000000000,     0.651338250000000,    -0.000000000000000 ]
    - [    -0.132871375000000,    -0.000000000000000,    -0.012134875000000 ]
  - # (1, 29)
    - [    -0.172916250000000,     0.000000000000000,    -0.107671250000000 ]
    - [     0.000000000000000,    -0.932719000000000,     0.000000000000000 ]
    - [    -0.107671250000000,    -0.000000000000000,    -0.172916250000000 ]
  - # (1, 30)
    - [    -0.172916250000000,    -0.000000000000000,     0.107671250000000 ]
    - [     0.000000000000000,    -0.932719000000000,     0.000000000000000 ]
    - [     0.107671250000000,    -0.000000000000000,    -0.172916250000000 ]
  - # (1, 31)
    - [    -0.012134875000000,     0.000000000000000,    -0.132871375000000 ]
    - [    -0.000000000000000,     0.651338250000000,     0.000000000000000 ]
    - [    -0.132871375000000,     0.000000000000000,    -0.012134875000000 ]
  - # (1, 32)
    - [    -0.012134875000000,     0.000000000000000,     0.132871375000000 ]
    - [     0.000000000000000,     0.651338250000000,     0.000000000000000 ]
    - [     0.132871375000000,     0.000000000000000,    -0.012134875000000 ]
  - # (1, 33)
    - [    -0.932719000000000,    -0.000000000000000,    -0.000000000000000 ]
    - [     0.000000000000000,    -0.172916250000000,     0.107671250000000 ]
    - [     0.000000000000000,     0.107671250000000,    -0.172916250000000 ]
  - # (1, 34)
    - [     0.651338250000000,    -0.000000000000000,    -0.000000000000000 ]
    - [     0.000000000000000,    -0.012134875000000,     0.132871375000000 ]
    - [     0.000000000000000,     0.132871375000000,    -0.012134875000000 ]
  - # (1, 35)
    - [    -0.932719000000000,     0.000000000000000,     0.000000000000000 ]
    - [    -0.000000000000000,    -0.172916250000000,    -0.107671250000000 ]
    - [    -0.000000000000000,    -0.107671250000000,    -0.172916250000000 ]
  - # (1, 36)
    - [     0.651338250000000,     0.000000000000000,    -0.000000000000000 ]
    - [     0.000000000000000,    -0.012134875000000,    -0.132871375000000 ]
    - [    -0.000000000000000,    -0.132871375000000,    -0.012134875000000 ]
  - # (1, 37)
    - [    -0.932719000000000,     0.000000000000000,    -0.000000000000000 ]
    - [    -0.000000000000000,    -0.172916250000000,    -0.107671250000000 ]
    - [    -0.000000000000000,    -0.107671250000000,    -0.172916250000000 ]
  - # (1, 38)
    - [     0.651338250000000,    -0.000000000000000,     0.000000000000000 ]
    - [    -0.000000000000000,    -0.012134875000000,    -0.132871375000000 ]
    - [    -0.000000000000000,    -0.132871375000000,    -0.012134875000000 ]
  - # (1, 39)
    - [    -0.932719000000000,    -0.000000000000000,     0.000000000000000 ]
    - [    -0.000000000000000,    -0.172916250000000,     0.107671250000000 ]
    - [    -0.000000000000000,     0.107671250000000,    -0.172916250000000 ]
  - # (1, 40)
    - [     0.651338250000000,     0.000000000000000,     0.000000000000000 ]
    - [     0.000000000000000,    -0.012134875000000,     0.132871375000000 ]
    - [     0.000000000000000,     0.132871375000000,    -0.012134875000000 ]
  - # (2, 1)
    - [    -2.475097000000000,     0.000000000000000,    -0.000000000000000 ]
    - [     0.000000000000000,     0.704353500000000,    -0.000000000000000 ]
    - [    -0.000000000000000,    -0.000000000000000,     0.704353500000000 ]
  - # (2, 2)
    - [     9.720056000000001,     0.000000000000000,    -0.000000000000000 ]
    - [    -0.000000000000000,     9.720056000000001,     0.000000000000000 ]
    - [     0.000000000000000,    -0.000000000000000,     9.720056000000001 ]
  - # (2, 3)
    - [    -0.597366500000000,     0.000000000000000,     0.000000000000000 ]
    - [     0.000000000000000,    -0.597366500000000,    -0.000000000000000 ]
    - [    -0.000000000000000,     0.000000000000000,     0.265738000000000 ]
  - # (2, 4)
    - [     0.704353500000000,    -0.000000000000000,    -0.000000000000000 ]
    - [     0.000000000000000,    -2.475097000000000,    -0.000000000000000 ]
    - [    -0.000000000000000,     0.000000000000000,     0.704353500000000 ]
  - # (2, 5)
    - [    -0.597366500000000,    -0.000000000000000,    -0.000000000000000 ]
    - [     0.000000000000000,     0.265738000000000,    -0.000000000000000 ]
    - [     0.000000000000000,     0.000000000000000,    -0.597366500000000 ]
  - # (2, 6)
    - [     0.704353500000000,    -0.000000000000000,    -0.000000000000000 ]
    - [    -0.000000000000000,     0.704353500000000,    -0.000000000000000 ]
    - [    -0.000000000000000,     0.000000000000000,    -2.475097000000000 ]
  - # (2, 7)
    - [    -0.245066000000000,    -0.000000000000000,     0.000000000000000 ]
    - [    -0.000000000000000,    -0.245066000000000,     0.000000000000000 ]
    - [     0.000000000000000,    -0.000000000000000,    -0.245066000000000 ]
  - # (2, 8)
    - [     0.265738000000000,     0.000000000000000,     0.000000000000000 ]
    - [     0.000000000000000,    -0.597366500000000,     0.000000000000000 ]
    - [    -0.000000000000000,     0.000000000000000,    -0.597366500000000 ]
  - # (2, 9)
    - [    -0.609209250000000,     1.488184375000000,     1.488184375000000 ]
    - [     1.488184375000000,    -0.609209250000000,    -1.488184375000000 ]
    - [     1.488184375000000,    -1.488184375000000,    -0.609209250000000 ]
  - # (2, 10)
    - [    -0.609209250000000,    -1.488184375000000,    -1.488184375000000 ]
    - [    -1.488184375000000,    -0.609209250000000,    -1.488184375000000 ]
    - [    -1.488184375000000,    -1.488184375000000,    -0.609209250000000 ]
  - # (2, 11)
    - [    -0.609209250000000,    -1.488184375000000,     1.488184375000000 ]
    - [    -1.488184375000000,    -0.609209250000000,     1.488184375000000 ]
    - [     1.488184375000000,     1.488184375000000,    -0.609209250000000 ]
  - # (2, 12)
    - [    -0.609209250000000,     1.488184375000000,    -1.488184375000000 ]
    - [     1.488184375000000,    -0.609209250000000,     1.488184375000000 ]
    - [    -1.488184375000000,     1.488184375000000,    -0.609209250000000 ]
  - # (2, 13)