2
Lattice="11.284 0.0 0.0 0.0 11.285 0.0 0.0 0.0 11.286000000000001" Properties=species:S:1:pos:R:3:initial_magmoms:R:1:magmoms:R:1 energy=-0.6691419820972235 free_energy=-0.6691419820972235 dipole="1.1116814764873638e-14 1.0884855876037466e-08 2.892001327714788e-08" magmom=1.3085567516478967e-14 pbc="T T T"
Cl       2.82100000       5.64200000       5.64200000       5.00000000       0.41312521
Cl       8.46300000       5.64200000       5.64200000      -5.00000000      -0.41312521
2
Lattice="11.284 0.0 0.0 0.0 11.285 0.0 0.0 0.0 11.286000000000001" Properties=species:S:1:pos:R:3:initial_magmoms:R:1:magmoms:R:1 energy=-0.669248092812297 free_energy=-0.669248092812297 dipole="-5.065191374656077e-15 3.5357172238361866e-10 4.5644989883679956e-08" magmom=1.785286845762737e-15 pbc="T T T"
Cl       2.92619048       5.64200000       5.64200000       5.00000000       0.41320521
Cl       8.35780952       5.64200000       5.64200000      -5.00000000      -0.41320521
2
Lattice="11.284 0.0 0.0 0.0 11.285 0.0 0.0 0.0 11.286000000000001" Properties=species:S:1:pos:R:3:initial_magmoms:R:1:magmoms:R:1 energy=-0.6695603478681187 free_energy=-0.6695603478681187 dipole="-1.3401513680029774e-14 4.1446609485144544e-08 7.923191209649764e-08" magmom=-4.582383432708e-16 pbc="T T T"
Cl       3.03138095       5.64200000       5.64200000       5.00000000       0.41320431
Cl       8.25261905       5.64200000       5.64200000      -5.00000000      -0.41320431
2
Lattice="11.284 0.0 0.0 0.0 11.285 0.0 0.0 0.0 11.286000000000001" Properties=species:S:1:pos:R:3:initial_magmoms:R:1:magmoms:R:1 energy=-0.6700477100633996 free_energy=-0.6700477100633996 dipole="-2.0211351654238062e-14 2.492525214972809e-08 5.6071505498854984e-08" magmom=-2.5367858312595434e-15 pbc="T T T"
Cl       3.13657143       5.64200000       5.64200000       5.00000000       0.41319893
Cl       8.14742857       5.64200000       5.64200000      -5.00000000      -0.41319893
2
Lattice="11.284 0.0 0.0 0.0 11.285 0.0 0.0 0.0 11.286000000000001" Properties=species:S:1:pos:R:3:initial_magmoms:R:1:magmoms:R:1 energy=-0.6706382596056603 free_energy=-0.6706382596056603 dipole="-9.913922247462182e-16 1.9541586247480363e-08 5.7577409379245094e-08" magmom=-8.368321746354002e-15 pbc="T T T"
Cl       3.24176190       5.64200000       5.64200000       5.00000000       0.41318601
Cl       8.04223810       5.64200000       5.64200000      -5.00000000      -0.41318601
2
Lattice="11.284 0.0 0.0 0.0 11.285 0.0 0.0 0.0 11.286000000000001" Properties=species:S:1:pos:R:3:initial_magmoms:R:1:magmoms:R:1 energy=-0.6711558026311287 free_energy=-0.6711558026311287 dipole="1.3237891706098684e-14 2.5020112844144682e-08 2.8448263284693913e-08" magmom=-3.330463801054846e-15 pbc="T T T"
Cl       3.34695238       5.64200000       5.64200000       5.00000000       0.41316544
Cl       7.93704762       5.64200000       5.64200000      -5.00000000      -0.41316544
2
Lattice="11.284 0.0 0.0 0.0 11.285 0.0 0.0 0.0 11.286000000000001" Properties=species:S:1:pos:R:3:initial_magmoms:R:1:magmoms:R:1 energy=-0.671230544713201 free_energy=-0.671230544713201 dipole="-4.580446660901029e-16 -6.0533841897910044e-09 2.5302429055612886e-08" magmom=1.5018553247106044e-15 pbc="T T T"
Cl       3.45214286       5.64200000       5.64200000       5.00000000       0.41312510
Cl       7.83185714       5.64200000       5.64200000      -5.00000000      -0.41312510
2
Lattice="11.284 0.0 0.0 0.0 11.285 0.0 0.0 0.0 11.286000000000001" Properties=species:S:1:pos:R:3:initial_magmoms:R:1:magmoms:R:1 energy=-0.6701132644317197 free_energy=-0.6701132644317197 dipole="2.461270667354839e-15 -1.2942799598166734e-08 2.5366403493109488e-09" magmom=-3.1850976731988263e-15 pbc="T T T"
Cl       3.55733333       5.64200000       5.64200000       5.00000000       0.41305093
Cl       7.72666667       5.64200000       5.64200000      -5.00000000      -0.41305093
2
Lattice="11.284 0.0 0.0 0.0 11.285 0.0 0.0 0.0 11.286000000000001" Properties=species:S:1:pos:R:3:initial_magmoms:R:1:magmoms:R:1 energy=-0.6663076419461832 free_energy=-0.6663076419461832 dipole="4.953330224706433e-15 2.4647054844212883e-08 3.0861594294492734e-08" magmom=3.216082766708479e-15 pbc="T T T"
Cl       3.66252381       5.64200000       5.64200000       5.00000000       0.41291177
Cl       7.62147619       5.64200000       5.64200000      -5.00000000      -0.41291177
2
Lattice="11.284 0.0 0.0 0.0 11.285 0.0 0.0 0.0 11.286000000000001" Properties=species:S:1:pos:R:3:initial_magmoms:R:1:magmoms:R:1 energy=-0.6568947846331168 free_energy=-0.6568947846331168 dipole="-1.3626896706613912e-14 5.6050165815104906e-08 8.765877111340773e-08" magmom=-4.2396721932748986e-15 pbc="T T T"
Cl       3.76771429       5.64200000       5.64200000       5.00000000       0.41264785
Cl       7.51628571       5.64200000       5.64200000      -5.00000000      -0.41264785
2
Lattice="11.284 0.0 0.0 0.0 11.285 0.0 0.0 0.0 11.286000000000001" Properties=species:S:1:pos:R:3:initial_magmoms:R:1:magmoms:R:1 energy=-0.6362307456758872 free_energy=-0.6362307456758872 dipole="-6.23444412816076e-13 4.224599845528633e-08 9.766026461949354e-08" magmom=-7.0067028017747165e-15 pbc="T T T"
Cl       3.87290476       5.64200000       5.64200000       5.00000000       0.41212465
Cl       7.41109524       5.64200000       5.64200000      -5.00000000      -0.41212465
